 argument  1 = water.nw
                                         
                                         


              Northwest Computational Chemistry Package (NWChem) 6.8
              ------------------------------------------------------


                    Environmental Molecular Sciences Laboratory
                       Pacific Northwest National Laboratory
                                Richland, WA 99352

                              Copyright (c) 1994-2017
                       Pacific Northwest National Laboratory
                            Battelle Memorial Institute

             NWChem is an open-source computational chemistry package
                        distributed under the terms of the
                      Educational Community License (ECL) 2.0
             A copy of the license is included with this distribution
                              in the LICENSE.TXT file

                                  ACKNOWLEDGMENT
                                  --------------

            This software and its documentation were developed at the
            EMSL at Pacific Northwest National Laboratory, a multiprogram
            national laboratory, operated for the U.S. Department of Energy
            by Battelle under Contract Number DE-AC05-76RL01830. Support
            for this work was provided by the Department of Energy Office
            of Biological and Environmental Research, Office of Basic
            Energy Sciences, and the Office of Advanced Scientific Computing.


           Job information
           ---------------

    hostname        = cn-mem
    program         = nwchem
    date            = Thu Nov 29 19:10:53 2018

    compiled        = Thu_Aug_16_15:06:52_2018
    source          = /gpfs/software/nwchem-6.8
    nwchem branch   = 6.8
    nwchem revision = v6.8-47-gdf6c956
    ga revision     = ga-5.6.3
    use scalapack   = F
    input           = water.nw
    prefix          = h2o_freq.
    data base       = ./h2o_freq.db
    status          = startup
    nproc           =        1
    time left       =     -1s



           Memory information
           ------------------

    heap     =   13107198 doubles =    100.0 Mbytes
    stack    =   13107195 doubles =    100.0 Mbytes
    global   =   26214400 doubles =    200.0 Mbytes (distinct from heap & stack)
    total    =   52428793 doubles =    400.0 Mbytes
    verify   = yes
    hardfail = no 


           Directory information
           ---------------------

  0 permanent = .
  0 scratch   = .




                                NWChem Input Module
                                -------------------



 Scaling coordinates for geometry "geometry" by  1.889725989
 (inverse scale =  0.529177249)

 C2V symmetry detected

          ------
          auto-z
          ------


                             Geometry "geometry" -> ""
                             -------------------------

 Output coordinates in angstroms (scale by  1.889725989 to convert to a.u.)

  No.       Tag          Charge          X              Y              Z
 ---- ---------------- ---------- -------------- -------------- --------------
    1 O                    8.0000     0.00000000     0.00000000    -0.14142136
    2 H                    1.0000     0.70710678     0.00000000     0.56568542
    3 H                    1.0000    -0.70710678     0.00000000     0.56568542

      Atomic Mass 
      ----------- 

      O                 15.994910
      H                  1.007825


 Effective nuclear repulsion energy (a.u.)       8.8410208052

            Nuclear Dipole moment (a.u.) 
            ----------------------------
        X                 Y               Z
 ---------------- ---------------- ----------------
     0.0000000000     0.0000000000     0.0000000000

      Symmetry information
      --------------------

 Group name             C2v       
 Group number             16
 Group order               4
 No. of unique centers     2

      Symmetry unique atoms

     1    2



                                Z-matrix (autoz)
                                -------- 

 Units are Angstrom for bonds and degrees for angles

      Type          Name      I     J     K     L     M      Value
      ----------- --------  ----- ----- ----- ----- ----- ----------
    1 Stretch                  1     2                       1.00000
    2 Stretch                  1     3                       1.00000
    3 Bend                     2     1     3                90.00000


            XYZ format geometry
            -------------------
     3
 geometry
 O                     0.00000000     0.00000000    -0.14142136
 H                     0.70710678     0.00000000     0.56568542
 H                    -0.70710678     0.00000000     0.56568542

 ==============================================================================
                                internuclear distances
 ------------------------------------------------------------------------------
       center one      |      center two      | atomic units |  angstroms
 ------------------------------------------------------------------------------
    2 H                |   1 O                |     1.88973  |     1.00000
    3 H                |   1 O                |     1.88973  |     1.00000
 ------------------------------------------------------------------------------
                         number of included internuclear distances:          2
 ==============================================================================



 ==============================================================================
                                 internuclear angles
 ------------------------------------------------------------------------------
        center 1       |       center 2       |       center 3       |  degrees
 ------------------------------------------------------------------------------
    2 H                |   1 O                |   3 H                |    90.00
 ------------------------------------------------------------------------------
                            number of included internuclear angles:          1
 ==============================================================================



                      Basis "ao basis" -> "" (cartesian)
                      -----
  H (Hydrogen)
  ------------
            Exponent  Coefficients 
       -------------- ---------------------------------------------------------
  1 S  3.42525091E+00  0.154329
  1 S  6.23913730E-01  0.535328
  1 S  1.68855400E-01  0.444635

  O (Oxygen)
  ----------
            Exponent  Coefficients 
       -------------- ---------------------------------------------------------
  1 S  1.30709320E+02  0.154329
  1 S  2.38088610E+01  0.535328
  1 S  6.44360830E+00  0.444635

  2 S  5.03315130E+00 -0.099967
  2 S  1.16959610E+00  0.399513
  2 S  3.80389000E-01  0.700115

  3 P  5.03315130E+00  0.155916
  3 P  1.16959610E+00  0.607684
  3 P  3.80389000E-01  0.391957



 Summary of "ao basis" -> "" (cartesian)
 ------------------------------------------------------------------------------
       Tag                 Description            Shells   Functions and Types
 ---------------- ------------------------------  ------  ---------------------
 H                           sto-3g                  1        1   1s
 O                           sto-3g                  3        5   2s1p


                      H2O+ : STO-3G UHF geometry optimization
                      ---------------------------------------


                           NWChem Geometry Optimization
                           ----------------------------




                      H2O+ : STO-3G UHF geometry optimization


 maximum gradient threshold         (gmax) =   0.000450
 rms gradient threshold             (grms) =   0.000300
 maximum cartesian step threshold   (xmax) =   0.001800
 rms cartesian step threshold       (xrms) =   0.001200
 fixed trust radius                (trust) =   0.300000
 maximum step size to saddle      (sadstp) =   0.100000
 energy precision                  (eprec) =   1.0D-07
 maximum number of steps          (nptopt) =   20
 initial hessian option           (inhess) =    0
 line search option               (linopt) =    1
 hessian update option            (modupd) =    1
 saddle point option              (modsad) =    0
 initial eigen-mode to follow     (moddir) =    0
 initial variable to follow       (vardir) =    0
 follow first negative mode     (firstneg) =    T
 apply conjugacy                    (opcg) =    F
 source of zmatrix                         =   autoz   


          -------------------
          Energy Minimization
          -------------------


 Names of Z-matrix variables 
    1              2              3         

 Variables with the same non-blank name are constrained to be equal


 Using old Hessian from previous optimization

          --------
          Step   0
          --------


                         Geometry "geometry" -> "geometry"
                         ---------------------------------

 Output coordinates in angstroms (scale by  1.889725989 to convert to a.u.)

  No.       Tag          Charge          X              Y              Z
 ---- ---------------- ---------- -------------- -------------- --------------
    1 O                    8.0000     0.00000000     0.00000000    -0.14142136
    2 H                    1.0000     0.70710678     0.00000000     0.56568542
    3 H                    1.0000    -0.70710678     0.00000000     0.56568542

      Atomic Mass 
      ----------- 

      O                 15.994910
      H                  1.007825


 Effective nuclear repulsion energy (a.u.)       8.8410208052

            Nuclear Dipole moment (a.u.) 
            ----------------------------
        X                 Y               Z
 ---------------- ---------------- ----------------
     0.0000000000     0.0000000000     0.0000000000

      Symmetry information
      --------------------

 Group name             C2v       
 Group number             16
 Group order               4
 No. of unique centers     2

      Symmetry unique atoms

     1    2

                                 NWChem SCF Module
                                 -----------------


                      H2O+ : STO-3G UHF geometry optimization



  ao basis        = "ao basis"
  functions       =     7
  atoms           =     3
  alpha electrons =     5
  beta  electrons =     4
  charge          =   1.00
  wavefunction    = UHF 
  input vectors   = atomic
  output vectors  = ./h2o_freq.movecs
  use symmetry    = T
  symmetry adapt  = T


 Forming initial guess at       0.1s


 Starting SCF solution at       0.1s



       Final UHF  results 
       ------------------ 

         Total SCF energy =    -74.653754521972
      One electron energy =   -115.830489513683
      Two electron energy =     32.335714186498
 Nuclear repulsion energy =      8.841020805213

                       Sz =      0.5000
                 Sz(Sz+1) =      0.7500
                      S^2 =      0.7566

        Time for solution =      0.0s


                              NWChem Gradients Module
                              -----------------------



                         UHF ENERGY GRADIENTS

    atom               coordinates                        gradient
                 x          y          z           x          y          z
   1 O       0.000000   0.000000  -0.267248    0.000000   0.000000   0.005967
   2 H       1.336238   0.000000   1.068990   -0.064647   0.000000  -0.002984
   3 H      -1.336238   0.000000   1.068990    0.064647   0.000000  -0.002984


@ Step       Energy      Delta E   Gmax     Grms     Xrms     Xmax   Walltime
@ ---- ---------------- -------- -------- -------- -------- -------- --------
@    0     -74.65375452  0.0D+00  0.04782  0.04646  0.00000  0.00000      0.2
                                                                    



                                Z-matrix (autoz)
                                -------- 

 Units are Angstrom for bonds and degrees for angles

      Type          Name      I     J     K     L     M      Value     Gradient
      ----------- --------  ----- ----- ----- ----- ----- ---------- ----------
    1 Stretch                  1     2                       1.00000   -0.04782
    2 Stretch                  1     3                       1.00000   -0.04782
    3 Bend                     2     1     3                90.00000   -0.04360

 Restricting large step in mode    1 eval= 3.9D-02 step= 1.1D+00 new= 3.0D-01
 Restricting overall step due to large component. alpha=  0.98
                                 NWChem SCF Module
                                 -----------------


                      H2O+ : STO-3G UHF geometry optimization



  ao basis        = "ao basis"
  functions       =     7
  atoms           =     3
  alpha electrons =     5
  beta  electrons =     4
  charge          =   1.00
  wavefunction    = UHF 
  input vectors   = ./h2o_freq.movecs
  output vectors  = ./h2o_freq.movecs
  use symmetry    = T
  symmetry adapt  = T


 Forming initial guess at       0.3s


 Starting SCF solution at       0.3s



       Final UHF  results 
       ------------------ 

         Total SCF energy =    -74.665878979031
      One electron energy =   -115.205327504613
      Two electron energy =     32.175703600186
 Nuclear repulsion energy =      8.363744925395

                       Sz =      0.5000
                 Sz(Sz+1) =      0.7500
                      S^2 =      0.7589

        Time for solution =      0.0s


 Line search: 
     step= 0.98 grad=-2.3D-02 hess= 1.1D-02 energy=    -74.665879 mode=accept  
 new step= 0.98                   predicted energy=    -74.665879

          --------
          Step   1
          --------


                         Geometry "geometry" -> "geometry"
                         ---------------------------------

 Output coordinates in angstroms (scale by  1.889725989 to convert to a.u.)

  No.       Tag          Charge          X              Y              Z
 ---- ---------------- ---------- -------------- -------------- --------------
    1 O                    8.0000     0.00000000     0.00000000    -0.12587150
    2 H                    1.0000     0.80196374     0.00000000     0.55791050
    3 H                    1.0000    -0.80196374     0.00000000     0.55791050

      Atomic Mass 
      ----------- 

      O                 15.994910
      H                  1.007825


 Effective nuclear repulsion energy (a.u.)       8.3637449254

            Nuclear Dipole moment (a.u.) 
            ----------------------------
        X                 Y               Z
 ---------------- ---------------- ----------------
     0.0000000000     0.0000000000     0.2056947149

      Symmetry information
      --------------------

 Group name             C2v       
 Group number             16
 Group order               4
 No. of unique centers     2

      Symmetry unique atoms

     1    2

                                 NWChem SCF Module
                                 -----------------


                      H2O+ : STO-3G UHF geometry optimization



  ao basis        = "ao basis"
  functions       =     7
  atoms           =     3
  alpha electrons =     5
  beta  electrons =     4
  charge          =   1.00
  wavefunction    = UHF 
  input vectors   = ./h2o_freq.movecs
  output vectors  = ./h2o_freq.movecs
  use symmetry    = T
  symmetry adapt  = T


  The SCF is already converged 

         Total SCF energy =    -74.665878979031

                              NWChem Gradients Module
                              -----------------------



                         UHF ENERGY GRADIENTS

    atom               coordinates                        gradient
                 x          y          z           x          y          z
   1 O       0.000000   0.000000  -0.237863    0.000000   0.000000  -0.047289
   2 H       1.515492   0.000000   1.054298    0.000179   0.000000   0.023645
   3 H      -1.515492   0.000000   1.054298   -0.000179   0.000000   0.023645


  Step       Energy      Delta E   Gmax     Grms     Xrms     Xmax   Walltime
  ---- ---------------- -------- -------- -------- -------- -------- --------
@    1     -74.66587898 -1.2D-02  0.01884  0.01667  0.08616  0.18007      0.5
                                                                    



                                Z-matrix (autoz)
                                -------- 

 Units are Angstrom for bonds and degrees for angles

      Type          Name      I     J     K     L     M      Value     Gradient
      ----------- --------  ----- ----- ----- ----- ----- ---------- ----------
    1 Stretch                  1     2                       1.05390    0.01548
    2 Stretch                  1     3                       1.05390    0.01548
    3 Bend                     2     1     3                99.09589   -0.01884

 Restricting large step in mode    1 eval= 4.9D-02 step= 4.3D-01 new= 3.0D-01
                                 NWChem SCF Module
                                 -----------------


                      H2O+ : STO-3G UHF geometry optimization



  ao basis        = "ao basis"
  functions       =     7
  atoms           =     3
  alpha electrons =     5
  beta  electrons =     4
  charge          =   1.00
  wavefunction    = UHF 
  input vectors   = ./h2o_freq.movecs
  output vectors  = ./h2o_freq.movecs
  use symmetry    = T
  symmetry adapt  = T


 Forming initial guess at       0.6s


 Starting SCF solution at       0.6s



       Final UHF  results 
       ------------------ 

         Total SCF energy =    -74.669548247944
      One electron energy =   -115.562723999821
      Two electron energy =     32.324445020725
 Nuclear repulsion energy =      8.568730731152

                       Sz =      0.5000
                 Sz(Sz+1) =      0.7500
                      S^2 =      0.7573

        Time for solution =      0.0s


 Line search: 
     step= 1.00 grad=-7.1D-03 hess= 3.5D-03 energy=    -74.669548 mode=accept  
 new step= 1.00                   predicted energy=    -74.669548

          --------
          Step   2
          --------


                         Geometry "geometry" -> "geometry"
                         ---------------------------------

 Output coordinates in angstroms (scale by  1.889725989 to convert to a.u.)

  No.       Tag          Charge          X              Y              Z
 ---- ---------------- ---------- -------------- -------------- --------------
    1 O                    8.0000     0.00000000     0.00000000    -0.07223463
    2 H                    1.0000     0.83020871     0.00000000     0.53109206
    3 H                    1.0000    -0.83020871     0.00000000     0.53109206

      Atomic Mass 
      ----------- 

      O                 15.994910
      H                  1.007825


 Effective nuclear repulsion energy (a.u.)       8.5687307312

            Nuclear Dipole moment (a.u.) 
            ----------------------------
        X                 Y               Z
 ---------------- ---------------- ----------------
     0.0000000000     0.0000000000     0.9152076764

      Symmetry information
      --------------------

 Group name             C2v       
 Group number             16
 Group order               4
 No. of unique centers     2

      Symmetry unique atoms

     1    2

                                 NWChem SCF Module
                                 -----------------


                      H2O+ : STO-3G UHF geometry optimization



  ao basis        = "ao basis"
  functions       =     7
  atoms           =     3
  alpha electrons =     5
  beta  electrons =     4
  charge          =   1.00
  wavefunction    = UHF 
  input vectors   = ./h2o_freq.movecs
  output vectors  = ./h2o_freq.movecs
  use symmetry    = T
  symmetry adapt  = T


  The SCF is already converged 

         Total SCF energy =    -74.669548247944

                              NWChem Gradients Module
                              -----------------------



                         UHF ENERGY GRADIENTS

    atom               coordinates                        gradient
                 x          y          z           x          y          z
   1 O       0.000000   0.000000  -0.136504    0.000000   0.000000   0.003355
   2 H       1.568867   0.000000   1.003618   -0.007966   0.000000  -0.001677
   3 H      -1.568867   0.000000   1.003618    0.007966   0.000000  -0.001677


  Step       Energy      Delta E   Gmax     Grms     Xrms     Xmax   Walltime
  ---- ---------------- -------- -------- -------- -------- -------- --------
@    2     -74.66954825 -3.7D-03  0.00743  0.00638  0.04686  0.10161      0.8
                                                                    



                                Z-matrix (autoz)
                                -------- 

 Units are Angstrom for bonds and degrees for angles

      Type          Name      I     J     K     L     M      Value     Gradient
      ----------- --------  ----- ----- ----- ----- ----- ---------- ----------
    1 Stretch                  1     2                       1.02628   -0.00743
    2 Stretch                  1     3                       1.02628   -0.00743
    3 Bend                     2     1     3               107.98692   -0.00341

                                 NWChem SCF Module
                                 -----------------


                      H2O+ : STO-3G UHF geometry optimization



  ao basis        = "ao basis"
  functions       =     7
  atoms           =     3
  alpha electrons =     5
  beta  electrons =     4
  charge          =   1.00
  wavefunction    = UHF 
  input vectors   = ./h2o_freq.movecs
  output vectors  = ./h2o_freq.movecs
  use symmetry    = T
  symmetry adapt  = T


 Forming initial guess at       0.8s


 Starting SCF solution at       0.8s



       Final UHF  results 
       ------------------ 

         Total SCF energy =    -74.669737160542
      One electron energy =   -115.499582582293
      Two electron energy =     32.312446492302
 Nuclear repulsion energy =      8.517398929449

                       Sz =      0.5000
                 Sz(Sz+1) =      0.7500
                      S^2 =      0.7576

        Time for solution =      0.0s


 Line search: 
     step= 1.00 grad=-3.3D-04 hess= 1.4D-04 energy=    -74.669737 mode=downhill
 new step= 1.19                   predicted energy=    -74.669742

          --------
          Step   3
          --------


                         Geometry "geometry" -> "geometry"
                         ---------------------------------

 Output coordinates in angstroms (scale by  1.889725989 to convert to a.u.)

  No.       Tag          Charge          X              Y              Z
 ---- ---------------- ---------- -------------- -------------- --------------
    1 O                    8.0000     0.00000000     0.00000000    -0.06659931
    2 H                    1.0000     0.84480265     0.00000000     0.52827440
    3 H                    1.0000    -0.84480265     0.00000000     0.52827440

      Atomic Mass 
      ----------- 

      O                 15.994910
      H                  1.007825


 Effective nuclear repulsion energy (a.u.)       8.5077197147

            Nuclear Dipole moment (a.u.) 
            ----------------------------
        X                 Y               Z
 ---------------- ---------------- ----------------
     0.0000000000     0.0000000000     0.9897520943

      Symmetry information
      --------------------

 Group name             C2v       
 Group number             16
 Group order               4
 No. of unique centers     2

      Symmetry unique atoms

     1    2

                                 NWChem SCF Module
                                 -----------------


                      H2O+ : STO-3G UHF geometry optimization



  ao basis        = "ao basis"
  functions       =     7
  atoms           =     3
  alpha electrons =     5
  beta  electrons =     4
  charge          =   1.00
  wavefunction    = UHF 
  input vectors   = ./h2o_freq.movecs
  output vectors  = ./h2o_freq.movecs
  use symmetry    = T
  symmetry adapt  = T


 Forming initial guess at       1.0s


 Starting SCF solution at       1.0s



       Final UHF  results 
       ------------------ 

         Total SCF energy =    -74.669742597373
      One electron energy =   -115.487758748369
      Two electron energy =     32.310296436309
 Nuclear repulsion energy =      8.507719714686

                       Sz =      0.5000
                 Sz(Sz+1) =      0.7500
                      S^2 =      0.7576

        Time for solution =      0.0s


                              NWChem Gradients Module
                              -----------------------



                         UHF ENERGY GRADIENTS

    atom               coordinates                        gradient
                 x          y          z           x          y          z
   1 O       0.000000   0.000000  -0.125854    0.000000   0.000000  -0.000655
   2 H       1.596446   0.000000   0.998294    0.000120   0.000000   0.000327
   3 H      -1.596446   0.000000   0.998294   -0.000120   0.000000   0.000327


  Step       Energy      Delta E   Gmax     Grms     Xrms     Xmax   Walltime
  ---- ---------------- -------- -------- -------- -------- -------- --------
@    3     -74.66974260 -1.9D-04  0.00029  0.00026  0.01371  0.02754      1.0
                                     ok       ok                    



                                Z-matrix (autoz)
                                -------- 

 Units are Angstrom for bonds and degrees for angles

      Type          Name      I     J     K     L     M      Value     Gradient
      ----------- --------  ----- ----- ----- ----- ----- ---------- ----------
    1 Stretch                  1     2                       1.03323    0.00029
    2 Stretch                  1     3                       1.03323    0.00029
    3 Bend                     2     1     3               109.69688   -0.00021

                                 NWChem SCF Module
                                 -----------------


                      H2O+ : STO-3G UHF geometry optimization



  ao basis        = "ao basis"
  functions       =     7
  atoms           =     3
  alpha electrons =     5
  beta  electrons =     4
  charge          =   1.00
  wavefunction    = UHF 
  input vectors   = ./h2o_freq.movecs
  output vectors  = ./h2o_freq.movecs
  use symmetry    = T
  symmetry adapt  = T


 Forming initial guess at       1.1s


 Starting SCF solution at       1.1s



       Final UHF  results 
       ------------------ 

         Total SCF energy =    -74.669743224161
      One electron energy =   -115.492157166626
      Two electron energy =     32.312294567080
 Nuclear repulsion energy =      8.510119375386

                       Sz =      0.5000
                 Sz(Sz+1) =      0.7500
                      S^2 =      0.7576

        Time for solution =      0.0s


 Line search: 
     step= 1.00 grad=-1.2D-06 hess= 5.8D-07 energy=    -74.669743 mode=accept  
 new step= 1.00                   predicted energy=    -74.669743

          --------
          Step   4
          --------


                         Geometry "geometry" -> "geometry"
                         ---------------------------------

 Output coordinates in angstroms (scale by  1.889725989 to convert to a.u.)

  No.       Tag          Charge          X              Y              Z
 ---- ---------------- ---------- -------------- -------------- --------------
    1 O                    8.0000     0.00000000     0.00000000    -0.06585293
    2 H                    1.0000     0.84519773     0.00000000     0.52790121
    3 H                    1.0000    -0.84519773     0.00000000     0.52790121

      Atomic Mass 
      ----------- 

      O                 15.994910
      H                  1.007825


 Effective nuclear repulsion energy (a.u.)       8.5101193754

            Nuclear Dipole moment (a.u.) 
            ----------------------------
        X                 Y               Z
 ---------------- ---------------- ----------------
     0.0000000000     0.0000000000     0.9996253833

      Symmetry information
      --------------------

 Group name             C2v       
 Group number             16
 Group order               4
 No. of unique centers     2

      Symmetry unique atoms

     1    2

                                 NWChem SCF Module
                                 -----------------


                      H2O+ : STO-3G UHF geometry optimization



  ao basis        = "ao basis"
  functions       =     7
  atoms           =     3
  alpha electrons =     5
  beta  electrons =     4
  charge          =   1.00
  wavefunction    = UHF 
  input vectors   = ./h2o_freq.movecs
  output vectors  = ./h2o_freq.movecs
  use symmetry    = T
  symmetry adapt  = T


  The SCF is already converged 

         Total SCF energy =    -74.669743224161

                              NWChem Gradients Module
                              -----------------------



                         UHF ENERGY GRADIENTS

    atom               coordinates                        gradient
                 x          y          z           x          y          z
   1 O       0.000000   0.000000  -0.124444    0.000000   0.000000  -0.000026
   2 H       1.597192   0.000000   0.997589    0.000005   0.000000   0.000013
   3 H      -1.597192   0.000000   0.997589   -0.000005   0.000000   0.000013


  Step       Energy      Delta E   Gmax     Grms     Xrms     Xmax   Walltime
  ---- ---------------- -------- -------- -------- -------- -------- --------
@    4     -74.66974322 -6.3D-07  0.00001  0.00001  0.00067  0.00141      1.3
                                     ok       ok       ok       ok  



                                Z-matrix (autoz)
                                -------- 

 Units are Angstrom for bonds and degrees for angles

      Type          Name      I     J     K     L     M      Value     Gradient
      ----------- --------  ----- ----- ----- ----- ----- ---------- ----------
    1 Stretch                  1     2                       1.03291    0.00001
    2 Stretch                  1     3                       1.03291    0.00001
    3 Bend                     2     1     3               109.82367   -0.00001


      ----------------------
      Optimization converged
      ----------------------


  Step       Energy      Delta E   Gmax     Grms     Xrms     Xmax   Walltime
  ---- ---------------- -------- -------- -------- -------- -------- --------
@    4     -74.66974322 -6.3D-07  0.00001  0.00001  0.00067  0.00141      1.3
                                     ok       ok       ok       ok  



                                Z-matrix (autoz)
                                -------- 

 Units are Angstrom for bonds and degrees for angles

      Type          Name      I     J     K     L     M      Value     Gradient
      ----------- --------  ----- ----- ----- ----- ----- ---------- ----------
    1 Stretch                  1     2                       1.03291    0.00001
    2 Stretch                  1     3                       1.03291    0.00001
    3 Bend                     2     1     3               109.82367   -0.00001



                         Geometry "geometry" -> "geometry"
                         ---------------------------------

 Output coordinates in angstroms (scale by  1.889725989 to convert to a.u.)

  No.       Tag          Charge          X              Y              Z
 ---- ---------------- ---------- -------------- -------------- --------------
    1 O                    8.0000     0.00000000     0.00000000    -0.06585293
    2 H                    1.0000     0.84519773     0.00000000     0.52790121
    3 H                    1.0000    -0.84519773     0.00000000     0.52790121

      Atomic Mass 
      ----------- 

      O                 15.994910
      H                  1.007825


 Effective nuclear repulsion energy (a.u.)       8.5101193754

            Nuclear Dipole moment (a.u.) 
            ----------------------------
        X                 Y               Z
 ---------------- ---------------- ----------------
     0.0000000000     0.0000000000     0.9996253833

      Symmetry information
      --------------------

 Group name             C2v       
 Group number             16
 Group order               4
 No. of unique centers     2

      Symmetry unique atoms

     1    2


                Final and change from initial internal coordinates
                --------------------------------------------------



                                Z-matrix (autoz)
                                -------- 

 Units are Angstrom for bonds and degrees for angles

      Type          Name      I     J     K     L     M      Value       Change
      ----------- --------  ----- ----- ----- ----- ----- ---------- ----------
    1 Stretch                  1     2                       1.03291    0.03291
    2 Stretch                  1     3                       1.03291    0.03291
    3 Bend                     2     1     3               109.82367   19.82367

 ==============================================================================
                                internuclear distances
 ------------------------------------------------------------------------------
       center one      |      center two      | atomic units |  angstroms
 ------------------------------------------------------------------------------
    2 H                |   1 O                |     1.95192  |     1.03291
    3 H                |   1 O                |     1.95192  |     1.03291
 ------------------------------------------------------------------------------
                         number of included internuclear distances:          2
 ==============================================================================



 ==============================================================================
                                 internuclear angles
 ------------------------------------------------------------------------------
        center 1       |       center 2       |       center 3       |  degrees
 ------------------------------------------------------------------------------
    2 H                |   1 O                |   3 H                |   109.82
 ------------------------------------------------------------------------------
                            number of included internuclear angles:          1
 ==============================================================================




 Task  times  cpu:        0.4s     wall:        1.2s


                                NWChem Input Module
                                -------------------


                      Basis "ao basis" -> "" (cartesian)
                      -----
  H (Hydrogen)
  ------------
            Exponent  Coefficients 
       -------------- ---------------------------------------------------------
  1 S  1.87311370E+01  0.033495
  1 S  2.82539370E+00  0.234727
  1 S  6.40121700E-01  0.813757

  2 S  1.61277800E-01  1.000000

  3 P  1.10000000E+00  1.000000

  O (Oxygen)
  ----------
            Exponent  Coefficients 
       -------------- ---------------------------------------------------------
  1 S  5.48467170E+03  0.001831
  1 S  8.25234950E+02  0.013950
  1 S  1.88046960E+02  0.068445
  1 S  5.29645000E+01  0.232714
  1 S  1.68975700E+01  0.470193
  1 S  5.79963530E+00  0.358521

  2 S  1.55396160E+01 -0.110778
  2 S  3.59993360E+00 -0.148026
  2 S  1.01376180E+00  1.130767

  3 P  1.55396160E+01  0.070874
  3 P  3.59993360E+00  0.339753
  3 P  1.01376180E+00  0.727159

  4 S  2.70005800E-01  1.000000

  5 P  2.70005800E-01  1.000000

  6 D  8.00000000E-01  1.000000



 Summary of "ao basis" -> "" (cartesian)
 ------------------------------------------------------------------------------
       Tag                 Description            Shells   Functions and Types
 ---------------- ------------------------------  ------  ---------------------
 H                          6-31g**                  3        5   2s1p
 O                          6-31g**                  6       15   3s2p1d


                     H2O+ : 6-31g** UMP2 geometry optimization
                     -----------------------------------------


                           NWChem Geometry Optimization
                           ----------------------------




                     H2O+ : 6-31g** UMP2 geometry optimization


 maximum gradient threshold         (gmax) =   0.000450
 rms gradient threshold             (grms) =   0.000300
 maximum cartesian step threshold   (xmax) =   0.001800
 rms cartesian step threshold       (xrms) =   0.001200
 fixed trust radius                (trust) =   0.300000
 maximum step size to saddle      (sadstp) =   0.100000
 energy precision                  (eprec) =   1.0D-07
 maximum number of steps          (nptopt) =   20
 initial hessian option           (inhess) =    0
 line search option               (linopt) =    1
 hessian update option            (modupd) =    1
 saddle point option              (modsad) =    0
 initial eigen-mode to follow     (moddir) =    0
 initial variable to follow       (vardir) =    0
 follow first negative mode     (firstneg) =    T
 apply conjugacy                    (opcg) =    F
 source of zmatrix                         =   autoz   


          -------------------
          Energy Minimization
          -------------------


 Names of Z-matrix variables 
    1              2              3         

 Variables with the same non-blank name are constrained to be equal


 Using old Hessian from previous optimization

          --------
          Step   0
          --------


                         Geometry "geometry" -> "geometry"
                         ---------------------------------

 Output coordinates in angstroms (scale by  1.889725989 to convert to a.u.)

  No.       Tag          Charge          X              Y              Z
 ---- ---------------- ---------- -------------- -------------- --------------
    1 O                    8.0000     0.00000000     0.00000000    -0.06585293
    2 H                    1.0000     0.84519773     0.00000000     0.52790121
    3 H                    1.0000    -0.84519773     0.00000000     0.52790121

      Atomic Mass 
      ----------- 

      O                 15.994910
      H                  1.007825


 Effective nuclear repulsion energy (a.u.)       8.5101193754

            Nuclear Dipole moment (a.u.) 
            ----------------------------
        X                 Y               Z
 ---------------- ---------------- ----------------
     0.0000000000     0.0000000000     0.9996253833

      Symmetry information
      --------------------

 Group name             C2v       
 Group number             16
 Group order               4
 No. of unique centers     2

      Symmetry unique atoms

     1    2

                                 NWChem SCF Module
                                 -----------------


                     H2O+ : 6-31g** UMP2 geometry optimization



  ao basis        = "ao basis"
  functions       =    25
  atoms           =     3
  alpha electrons =     5
  beta  electrons =     4
  charge          =   1.00
  wavefunction    = UHF 
  input vectors   = ./h2o_freq.movecs
  output vectors  = ./h2o_freq.movecs
  use symmetry    = T
  symmetry adapt  = T


 Forming initial guess at       1.4s


 !! nbf/nmo/basis-name mismatch 
           nbf=  25 nbf_file=   7
           nmo=  25 nmo_file=   7
           basis="ao basis" basis_file="ao basis"

  Either an incorrect movecs file was specified, or linear dependence has changed,
  or the basis name was changed. 

  Load of old vectors failed.   Forcing atomic density guess


 Starting SCF solution at       1.4s



       Final UHF  results 
       ------------------ 

         Total SCF energy =    -75.624184131242
      One electron energy =   -116.982579771589
      Two electron energy =     32.848276264961
 Nuclear repulsion energy =      8.510119375386

                       Sz =      0.5000
                 Sz(Sz+1) =      0.7500
                      S^2 =      0.7580

        Time for solution =      0.2s


                   NWChem MP2 Semi-direct Energy/Gradient Module
                   ---------------------------------------------


                     H2O+ : 6-31g** UMP2 geometry optimization


  Basis functions       =     25
  Molecular orbitals    =     25
  Frozen core           =      0
  Frozen virtuals       =      0
  Active alpha occupied =      5
  Active beta occupied  =      4
  Active alpha virtual  =     20
  Active beta virtual   =     21
  Use MO symmetry       = T
  Use skeleton AO sym   = T

  AO/Fock/Back tols     =   1.0D-09  1.0D-09  1.0D-09

 GA uses MA = F    GA memory limited = T

 Available: 
  local mem=  2.62D+07
 global mem=  2.62D+07
 local disk=  2.81D+13
  mp2_memr nvloc                    20
  nvloc new                    20
   1 passes of   5:        1488524                       9108                    115042.

 Semi-direct pass number   1 of   1  for UHF alpha       at        1.7s
  vrange nnbf                   325
Node 0 wrote      0.3 Mb in      0.0 s     Agg I/O rate:     0.0 Mb/s
 Done moints_semi at        1.8s
  mp2_eaf for ta                     -1
  mp2_eaf for tb                     -1
 Done maket at        1.8s
 Done pijab at        1.8s
 Done wijab at        1.8s
 Done lai at        1.8s
 Done nonsep at        2.0s
 Done multipass loop at        2.0s

 GA uses MA = F    GA memory limited = T

 Available: 
  local mem=  2.62D+07
 global mem=  2.62D+07
 local disk=  2.81D+13
  mp2_memr nvloc                    21
  nvloc new                    21
   1 passes of   4:        1487581                       9372                     95144.

 Semi-direct pass number   1 of   1  for UHF beta        at        2.0s
  vrange nnbf                   325
Node 0 wrote      0.2 Mb in      0.0 s     Agg I/O rate:     0.0 Mb/s
 Done moints_semi at        2.1s
  mp2_eaf for ta                     -1
  mp2_eaf for tb                     -1
 Done maket at        2.1s
 Done pijab at        2.1s
 Done wijab at        2.1s
 Done lai at        2.1s
 Done nonsep at        2.3s
 Done multipass loop at        2.3s


          -------------------------------------------
          SCF energy                 -75.624184131242
          Correlation energy          -0.150867787028
          Singlet pairs                0.000000000000
          Triplet pairs                0.000000000000
          Total MP2 energy           -75.775051918270
          -------------------------------------------



          ---------------------------------------------------
                    Spin Component Scaled (SCS) MP2
          Same spin pairs                     -0.034870465002
          Same spin scaling factor             0.333333333333
          Opposite spin pairs                 -0.115997322026
          Opposite spin scaling fact.          1.200000000000
          SCS-MP2 correlation energy          -0.150820274765
          Total SCS-MP2 energy               -75.775004406007
          ---------------------------------------------------

                                NWChem CPHF Module
                                ------------------


    scftype = UHF 
     nalpha =    5
      nbeta =    4
  variables =      184
  tolerance =   1.0D-04
  max. iter =  100


 #quartets = 1.953D+03 #integrals = 1.805D+04 #direct =  0.0% #cached =100.0%


 Integral file          = ./h2o_freq.aoints.0
 Record size in doubles =    65536    No. of integs per rec  =    43688
 Max. records in memory =        2    Max. records in file   = ********
 No. of bits per label  =        8    No. of bits per value  =       64

 SCF residual:    5.2238705484670642E-008

            ----- linear solve (tol: 1.0E-04 prod-acc: 3.1E-12) -----

               iter nbas    rnorm     rnorm-scal   ratio     time
               ---- ---- ----------- ----------- --------- -------
                  1    1  1.3188E-02  3.1208E-01    0.0000     1.4
                  2    2  4.4474E-03  1.0524E-01    0.3372     1.4
                  3    3  1.5642E-03  3.7015E-02    0.3517     1.4
                  4    4  4.0347E-04  9.5476E-03    0.2579     1.4
                  5    5  6.7317E-05  1.5930E-03    0.1668     1.4
                  6    6  1.6898E-05  3.9988E-04    0.2510     1.4
                  7    7  3.8095E-06  9.0145E-05    0.2254     1.4

 CPHF converged to   9.0D-05 in    7 iters


 Parallel integral file used       1 records with       0 large values

                Dipole Moments (a.u.)
                --------------
         Nuclear       SCF       SCF+MP2
       ----------- ----------- -----------
 X       0.000000    0.000000    0.000000
 Y       0.000000    0.000000    0.000000
 Z       0.999625    1.072440    1.037620


 MP2 alpha    natural orbital occupation numbers


              1      
    1    1.0000
    2    0.9951
    3    0.9911
    4    0.9876
    5    0.9863
    6    0.0096
    7    0.0086
    8    0.0055
    9    0.0040
   10    0.0023
   11    0.0022
   12    0.0022
   13    0.0021
   14    0.0019
   15    0.0004
   16    0.0003
   17    0.0002
   18    0.0001
   19    0.0001
   20    0.0001
   21    0.0001
   22    0.0001
   23    0.0000
   24    0.0000
   25   -0.0000

 MP2 beta     natural orbital occupation numbers


              1      
    1    1.0000
    2    0.9921
    3    0.9873
    4    0.9863
    5    0.0101
    6    0.0087
    7    0.0043
    8    0.0029
    9    0.0022
   10    0.0021
   11    0.0010
   12    0.0010
   13    0.0007
   14    0.0003
   15    0.0003
   16    0.0002
   17    0.0002
   18    0.0001
   19    0.0001
   20    0.0001
   21    0.0001
   22    0.0001
   23    0.0000
   24    0.0000
   25    0.0000

  MP2 natural orbitals output to ./h2o_freq.mp2nos

  Using symmetry


                         mp2 ENERGY GRADIENTS

    atom               coordinates                        gradient
                 x          y          z           x          y          z
   1 O       0.000000   0.000000  -0.124444    0.000000   0.000000  -0.027671
   2 H       1.597192   0.000000   0.997589    0.020489   0.000000   0.013836
   3 H      -1.597192   0.000000   0.997589   -0.020489   0.000000   0.013836

                 ----------------------------------------
                 |  Time  |  1-e(secs)   |  2-e(secs)   |
                 ----------------------------------------
                 |  CPU   |       0.00   |       0.13   |
                 ----------------------------------------
                 |  WALL  |       0.00   |       0.15   |
                 ----------------------------------------
 -----------------------
 Performance information
 -----------------------

 Timer overhead =  4.39D-07 seconds/call

               Nr. of calls         CPU time (s)                 Wall time (s)                GFlops
             ---------------    -------------------     ------------------------------   -------------------
Name         Min   Avg   Max    Min     Avg     Max     Min     Avg     Max   Mx/calls   Min     Max     Sum
mp2: moin     2     2     2   0.16    0.16    0.16     0.17    0.17    0.17    8.69E-2   0.0     0.0     0.0   
mp2: make     2     2     2   7.41E-3 7.41E-3 7.41E-3  2.42E-2 2.42E-2 2.42E-2 1.21E-2   0.0     0.0     0.0   
mp2: pija     2     2     2   1.19E-3 1.19E-3 1.19E-3  1.32E-3 1.32E-3 1.32E-3 6.58E-4   0.0     0.0     0.0   
mp2: wija     2     2     2    0.0     0.0     0.0     1.31E-3 1.31E-3 1.31E-3 6.57E-4   0.0     0.0     0.0   
mp2: lai      2     2     2   3.15E-3 3.15E-3 3.15E-3  4.94E-3 4.94E-3 4.94E-3 2.47E-3   0.0     0.0     0.0   
mp2: back     2     2     2   4.78E-3 4.78E-3 4.78E-3  1.46E-2 1.46E-2 1.46E-2 7.30E-3   0.0     0.0     0.0   
mp2: nons     2     2     2   0.34    0.34    0.34     0.34    0.34    0.34    0.17      0.0     0.0     0.0   
mp2: laif     1     1     1   4.11E-2 4.11E-2 4.11E-2  4.20E-2 4.20E-2 4.20E-2 4.20E-2   0.0     0.0     0.0   
mp2: cphf     1     1     1   8.01E-2 8.01E-2 8.01E-2  0.16    0.16    0.16    0.16      0.0     0.0     0.0   
mp2: wijf     1     1     1   6.57E-2 6.57E-2 6.57E-2  6.64E-2 6.64E-2 6.64E-2 6.64E-2   0.0     0.0     0.0   
mp2: sep      1     1     1   0.16    0.16    0.16     0.17    0.17    0.17    0.17      0.0     0.0     0.0   
mp2: tota     1     1     1   0.95    0.95    0.95      1.1     1.1     1.1     1.1      0.0     0.0     0.0   

 The average no. of pstat calls per process was 1.90D+01
 with a timing overhead of 8.34D-06s


@ Step       Energy      Delta E   Gmax     Grms     Xrms     Xmax   Walltime
@ ---- ---------------- -------- -------- -------- -------- -------- --------
@    0     -75.77505192  0.0D+00  0.02472  0.02018  0.00000  0.00000      2.8
                                                                    



                                Z-matrix (autoz)
                                -------- 

 Units are Angstrom for bonds and degrees for angles

      Type          Name      I     J     K     L     M      Value     Gradient
      ----------- --------  ----- ----- ----- ----- ----- ---------- ----------
    1 Stretch                  1     2                       1.03291    0.02472
    2 Stretch                  1     3                       1.03291    0.02472
    3 Bend                     2     1     3               109.82367    0.00047

                                 NWChem SCF Module
                                 -----------------


                     H2O+ : 6-31g** UMP2 geometry optimization



  ao basis        = "ao basis"
  functions       =    25
  atoms           =     3
  alpha electrons =     5
  beta  electrons =     4
  charge          =   1.00
  wavefunction    = UHF 
  input vectors   = ./h2o_freq.movecs
  output vectors  = ./h2o_freq.movecs
  use symmetry    = T
  symmetry adapt  = T


 Forming initial guess at       2.9s


 Starting SCF solution at       2.9s



       Final UHF  results 
       ------------------ 

         Total SCF energy =    -75.627058709915
      One electron energy =   -117.308783417738
      Two electron energy =     32.965746182496
 Nuclear repulsion energy =      8.715978525327

                       Sz =      0.5000
                 Sz(Sz+1) =      0.7500
                      S^2 =      0.7573

        Time for solution =      0.2s


                   NWChem MP2 Semi-direct Energy/Gradient Module
                   ---------------------------------------------


                     H2O+ : 6-31g** UMP2 geometry optimization


  Basis functions       =     25
  Molecular orbitals    =     25
  Frozen core           =      0
  Frozen virtuals       =      0
  Active alpha occupied =      5
  Active beta occupied  =      4
  Active alpha virtual  =     20
  Active beta virtual   =     21
  Use MO symmetry       = T
  Use skeleton AO sym   = T

  AO/Fock/Back tols     =   1.0D-09  1.0D-09  1.0D-09

 GA uses MA = F    GA memory limited = T

 Available: 
  local mem=  2.62D+07
 global mem=  2.62D+07
 local disk=  2.81D+13
  mp2_memr nvloc                    20
  nvloc new                    20
   1 passes of   5:         392343                       4947                     78785.

 Semi-direct pass number   1 of   1  for UHF alpha       at        3.2s
  vrange nnbf                   325
Node 0 wrote      0.3 Mb in      0.0 s     Agg I/O rate:   212.2 Mb/s
 Done moints_semi at        3.3s
 Done maket at        3.3s
 Done multipass loop at        3.3s

 GA uses MA = F    GA memory limited = T

 Available: 
  local mem=  2.62D+07
 global mem=  2.62D+07
 local disk=  2.81D+13
  mp2_memr nvloc                    21
  nvloc new                    21
   1 passes of   4:         391425                       4359                     66305.

 Semi-direct pass number   1 of   1  for UHF beta        at        3.4s
  vrange nnbf                   325
Node 0 wrote      0.2 Mb in      0.0 s     Agg I/O rate:   192.9 Mb/s
 Done moints_semi at        3.5s
 Done maket at        3.5s
 Done multipass loop at        3.5s


          -------------------------------------------
          SCF energy                 -75.627058709915
          Correlation energy          -0.149493137480
          Singlet pairs                0.000000000000
          Triplet pairs                0.000000000000
          Total MP2 energy           -75.776551847394
          -------------------------------------------



          ---------------------------------------------------
                    Spin Component Scaled (SCS) MP2
          Same spin pairs                     -0.034557438633
          Same spin scaling factor             0.333333333333
          Opposite spin pairs                 -0.114935698847
          Opposite spin scaling fact.          1.200000000000
          SCS-MP2 correlation energy          -0.149441984828
          Total SCS-MP2 energy               -75.776500694742
          ---------------------------------------------------

 -----------------------
 Performance information
 -----------------------

 Timer overhead =  1.05D-07 seconds/call

               Nr. of calls         CPU time (s)                 Wall time (s)                GFlops
             ---------------    -------------------     ------------------------------   -------------------
Name         Min   Avg   Max    Min     Avg     Max     Min     Avg     Max   Mx/calls   Min     Max     Sum
mp2: moin     2     2     2   0.28    0.28    0.28     0.29    0.29    0.29    0.15      0.0     0.0     0.0   
mp2: make     2     2     2   1.73E-2 1.73E-2 1.73E-2  2.14E-2 2.14E-2 2.14E-2 1.07E-2   0.0     0.0     0.0   
mp2: tota     1     1     1   0.37    0.37    0.37     0.42    0.42    0.42    0.42      0.0     0.0     0.0   

 The average no. of pstat calls per process was 5.00D+00
 with a timing overhead of 5.25D-07s

 Line search: 
     step= 1.00 grad=-2.3D-03 hess= 7.8D-04 energy=    -75.776552 mode=downhill
 new step= 1.46                   predicted energy=    -75.776717

          --------
          Step   1
          --------


                         Geometry "geometry" -> "geometry"
                         ---------------------------------

 Output coordinates in angstroms (scale by  1.889725989 to convert to a.u.)

  No.       Tag          Charge          X              Y              Z
 ---- ---------------- ---------- -------------- -------------- --------------
    1 O                    8.0000     0.00000000     0.00000000    -0.04941131
    2 H                    1.0000     0.81882859     0.00000000     0.51968040
    3 H                    1.0000    -0.81882859     0.00000000     0.51968040

      Atomic Mass 
      ----------- 

      O                 15.994910
      H                  1.007825


 Effective nuclear repulsion energy (a.u.)       8.8140059857

            Nuclear Dipole moment (a.u.) 
            ----------------------------
        X                 Y               Z
 ---------------- ---------------- ----------------
     0.0000000000     0.0000000000     1.2171164914

      Symmetry information
      --------------------

 Group name             C2v       
 Group number             16
 Group order               4
 No. of unique centers     2

      Symmetry unique atoms

     1    2

                                 NWChem SCF Module
                                 -----------------


                     H2O+ : 6-31g** UMP2 geometry optimization



  ao basis        = "ao basis"
  functions       =    25
  atoms           =     3
  alpha electrons =     5
  beta  electrons =     4
  charge          =   1.00
  wavefunction    = UHF 
  input vectors   = ./h2o_freq.movecs
  output vectors  = ./h2o_freq.movecs
  use symmetry    = T
  symmetry adapt  = T


 Forming initial guess at       3.7s


 Starting SCF solution at       3.7s



       Final UHF  results 
       ------------------ 

         Total SCF energy =    -75.627808961320
      One electron energy =   -117.463559263265
      Two electron energy =     33.021744316256
 Nuclear repulsion energy =      8.814005985688

                       Sz =      0.5000
                 Sz(Sz+1) =      0.7500
                      S^2 =      0.7571

        Time for solution =      0.1s


                   NWChem MP2 Semi-direct Energy/Gradient Module
                   ---------------------------------------------


                     H2O+ : 6-31g** UMP2 geometry optimization


  Basis functions       =     25
  Molecular orbitals    =     25
  Frozen core           =      0
  Frozen virtuals       =      0
  Active alpha occupied =      5
  Active beta occupied  =      4
  Active alpha virtual  =     20
  Active beta virtual   =     21
  Use MO symmetry       = T
  Use skeleton AO sym   = T

  AO/Fock/Back tols     =   1.0D-09  1.0D-09  1.0D-09

 GA uses MA = F    GA memory limited = T

 Available: 
  local mem=  2.62D+07
 global mem=  2.62D+07
 local disk=  2.81D+13
  mp2_memr nvloc                    20
  nvloc new                    20
   1 passes of   5:        1488524                       9108                    115042.

 Semi-direct pass number   1 of   1  for UHF alpha       at        3.9s
  vrange nnbf                   325
Node 0 wrote      0.3 Mb in      0.0 s     Agg I/O rate:  1232.2 Mb/s
 Done moints_semi at        4.1s
  mp2_eaf for ta                     -1
  mp2_eaf for tb                     -1
 Done maket at        4.1s
 Done pijab at        4.1s
 Done wijab at        4.1s
 Done lai at        4.1s
 Done nonsep at        4.3s
 Done multipass loop at        4.3s

 GA uses MA = F    GA memory limited = T

 Available: 
  local mem=  2.62D+07
 global mem=  2.62D+07
 local disk=  2.81D+13
  mp2_memr nvloc                    21
  nvloc new                    21
   1 passes of   4:        1487581                       9372                     95144.

 Semi-direct pass number   1 of   1  for UHF beta        at        4.4s
  vrange nnbf                   325
Node 0 wrote      0.2 Mb in      0.0 s     Agg I/O rate:     0.0 Mb/s
 Done moints_semi at        4.5s
  mp2_eaf for ta                     -1
  mp2_eaf for tb                     -1
 Done maket at        4.5s
 Done pijab at        4.5s
 Done wijab at        4.5s
 Done lai at        4.5s
 Done nonsep at        4.7s
 Done multipass loop at        4.7s


          -------------------------------------------
          SCF energy                 -75.627808961320
          Correlation energy          -0.148861520695
          Singlet pairs                0.000000000000
          Triplet pairs                0.000000000000
          Total MP2 energy           -75.776670482015
          -------------------------------------------



          ---------------------------------------------------
                    Spin Component Scaled (SCS) MP2
          Same spin pairs                     -0.034414333955
          Same spin scaling factor             0.333333333333
          Opposite spin pairs                 -0.114447186740
          Opposite spin scaling fact.          1.200000000000
          SCS-MP2 correlation energy          -0.148808068740
          Total SCS-MP2 energy               -75.776617030060
          ---------------------------------------------------

                                NWChem CPHF Module
                                ------------------


    scftype = UHF 
     nalpha =    5
      nbeta =    4
  variables =      184
  tolerance =   1.0D-04
  max. iter =  100


 #quartets = 1.953D+03 #integrals = 1.805D+04 #direct =  0.0% #cached =100.0%


 Integral file          = ./h2o_freq.aoints.0
 Record size in doubles =    65536    No. of integs per rec  =    43688
 Max. records in memory =        2    Max. records in file   = ********
 No. of bits per label  =        8    No. of bits per value  =       64

 SCF residual:    8.4939905243804065E-008

            ----- linear solve (tol: 1.0E-04 prod-acc: 3.0E-12) -----

               iter nbas    rnorm     rnorm-scal   ratio     time
               ---- ---- ----------- ----------- --------- -------
                  1    1  1.2438E-02  3.0395E-01    0.0000     3.3
                  2    2  3.9062E-03  9.5453E-02    0.3140     3.3
                  3    3  1.2786E-03  3.1244E-02    0.3273     3.3
                  4    4  3.1609E-04  7.7240E-03    0.2472     3.3
                  5    5  4.9909E-05  1.2196E-03    0.1579     3.3
                  6    6  1.1755E-05  2.8726E-04    0.2355     3.3
                  7    7  2.5821E-06  6.3096E-05    0.2196     3.3

 CPHF converged to   6.3D-05 in    7 iters


 Parallel integral file used       1 records with       0 large values

                Dipole Moments (a.u.)
                --------------
         Nuclear       SCF       SCF+MP2
       ----------- ----------- -----------
 X       0.000000    0.000000    0.000000
 Y       0.000000    0.000000    0.000000
 Z       1.217116    1.051020    1.021657


 MP2 alpha    natural orbital occupation numbers


              1      
    1    1.0000
    2    0.9952
    3    0.9913
    4    0.9881
    5    0.9870
    6    0.0090
    7    0.0080
    8    0.0053
    9    0.0039
   10    0.0023
   11    0.0022
   12    0.0021
   13    0.0021
   14    0.0019
   15    0.0003
   16    0.0003
   17    0.0002
   18    0.0002
   19    0.0001
   20    0.0001
   21    0.0001
   22    0.0001
   23    0.0000
   24    0.0000
   25    0.0000

 MP2 beta     natural orbital occupation numbers


              1      
    1    1.0000
    2    0.9922
    3    0.9879
    4    0.9870
    5    0.0094
    6    0.0081
    7    0.0042
    8    0.0029
    9    0.0022
   10    0.0021
   11    0.0010
   12    0.0010
   13    0.0007
   14    0.0003
   15    0.0003
   16    0.0002
   17    0.0002
   18    0.0002
   19    0.0001
   20    0.0001
   21    0.0001
   22    0.0001
   23    0.0000
   24    0.0000
   25    0.0000

  MP2 natural orbitals output to ./h2o_freq.mp2nos

  Using symmetry


                         mp2 ENERGY GRADIENTS

    atom               coordinates                        gradient
                 x          y          z           x          y          z
   1 O       0.000000   0.000000  -0.093374    0.000000   0.000000   0.002140
   2 H       1.547362   0.000000   0.982054   -0.001442   0.000000  -0.001070
   3 H      -1.547362   0.000000   0.982054    0.001442   0.000000  -0.001070

                 ----------------------------------------
                 |  Time  |  1-e(secs)   |  2-e(secs)   |
                 ----------------------------------------
                 |  CPU   |       0.00   |       0.12   |
                 ----------------------------------------
                 |  WALL  |       0.00   |       0.13   |
                 ----------------------------------------
 -----------------------
 Performance information
 -----------------------

 Timer overhead =  1.68D-07 seconds/call

               Nr. of calls         CPU time (s)                 Wall time (s)                GFlops
             ---------------    -------------------     ------------------------------   -------------------
Name         Min   Avg   Max    Min     Avg     Max     Min     Avg     Max   Mx/calls   Min     Max     Sum
mp2: moin     2     2     2   0.22    0.22    0.22     0.23    0.23    0.23    0.12      0.0     0.0     0.0   
mp2: make     2     2     2   1.39E-2 1.39E-2 1.39E-2  3.05E-2 3.05E-2 3.05E-2 1.53E-2   0.0     0.0     0.0   
mp2: pija     2     2     2   5.67E-4 5.67E-4 5.67E-4  1.82E-3 1.82E-3 1.82E-3 9.12E-4   0.0     0.0     0.0   
mp2: wija     2     2     2   1.92E-3 1.92E-3 1.92E-3  1.90E-3 1.90E-3 1.90E-3 9.51E-4   0.0     0.0     0.0   
mp2: lai      2     2     2   6.16E-3 6.16E-3 6.16E-3  7.20E-3 7.20E-3 7.20E-3 3.60E-3   0.0     0.0     0.0   
mp2: back     2     2     2   9.40E-3 9.40E-3 9.40E-3  4.40E-2 4.40E-2 4.40E-2 2.20E-2   0.0     0.0     0.0   
mp2: nons     2     2     2   0.41    0.41    0.41     0.41    0.41    0.41    0.20      0.0     0.0     0.0   
mp2: laif     1     1     1   5.07E-2 5.07E-2 5.07E-2  5.19E-2 5.19E-2 5.19E-2 5.19E-2   0.0     0.0     0.0   
mp2: cphf     1     1     1   9.20E-2 9.20E-2 9.20E-2  0.12    0.12    0.12    0.12      0.0     0.0     0.0   
mp2: wijf     1     1     1   4.99E-2 4.99E-2 4.99E-2  5.09E-2 5.09E-2 5.09E-2 5.09E-2   0.0     0.0     0.0   
mp2: sep      1     1     1   0.14    0.14    0.14     0.15    0.15    0.15    0.15      0.0     0.0     0.0   
mp2: tota     1     1     1    1.1     1.1     1.1      1.3     1.3     1.3     1.3      0.0     0.0     0.0   

 The average no. of pstat calls per process was 1.90D+01
 with a timing overhead of 3.19D-06s


  Step       Energy      Delta E   Gmax     Grms     Xrms     Xmax   Walltime
  ---- ---------------- -------- -------- -------- -------- -------- --------
@    1     -75.77667048 -1.6D-03  0.00179  0.00147  0.02672  0.04991      5.2
                                                                    



                                Z-matrix (autoz)
                                -------- 

 Units are Angstrom for bonds and degrees for angles

      Type          Name      I     J     K     L     M      Value     Gradient
      ----------- --------  ----- ----- ----- ----- ----- ---------- ----------
    1 Stretch                  1     2                       0.99717   -0.00179
    2 Stretch                  1     3                       0.99717   -0.00179
    3 Bend                     2     1     3               110.40085    0.00006

                                 NWChem SCF Module
                                 -----------------


                     H2O+ : 6-31g** UMP2 geometry optimization



  ao basis        = "ao basis"
  functions       =    25
  atoms           =     3
  alpha electrons =     5
  beta  electrons =     4
  charge          =   1.00
  wavefunction    = UHF 
  input vectors   = ./h2o_freq.movecs
  output vectors  = ./h2o_freq.movecs
  use symmetry    = T
  symmetry adapt  = T


 Forming initial guess at       5.2s


 Starting SCF solution at       5.2s



       Final UHF  results 
       ------------------ 

         Total SCF energy =    -75.627674915112
      One electron energy =   -117.429685604382
      Two electron energy =     33.009359407711
 Nuclear repulsion energy =      8.792651281559

                       Sz =      0.5000
                 Sz(Sz+1) =      0.7500
                      S^2 =      0.7571

        Time for solution =      0.1s


                   NWChem MP2 Semi-direct Energy/Gradient Module
                   ---------------------------------------------


                     H2O+ : 6-31g** UMP2 geometry optimization


  Basis functions       =     25
  Molecular orbitals    =     25
  Frozen core           =      0
  Frozen virtuals       =      0
  Active alpha occupied =      5
  Active beta occupied  =      4
  Active alpha virtual  =     20
  Active beta virtual   =     21
  Use MO symmetry       = T
  Use skeleton AO sym   = T

  AO/Fock/Back tols     =   1.0D-09  1.0D-09  1.0D-09

 GA uses MA = F    GA memory limited = T

 Available: 
  local mem=  2.62D+07
 global mem=  2.62D+07
 local disk=  5.62D+13
  mp2_memr nvloc                    20
  nvloc new                    20
   1 passes of   5:         392343                       4947                     78785.

 Semi-direct pass number   1 of   1  for UHF alpha       at        5.5s
  vrange nnbf                   325
Node 0 wrote      0.3 Mb in      0.0 s     Agg I/O rate:  1529.4 Mb/s
 Done moints_semi at        5.6s
 Done maket at        5.6s
 Done multipass loop at        5.6s

 GA uses MA = F    GA memory limited = T

 Available: 
  local mem=  2.62D+07
 global mem=  2.62D+07
 local disk=  2.81D+13
  mp2_memr nvloc                    21
  nvloc new                    21
   1 passes of   4:         391425                       4359                     66305.

 Semi-direct pass number   1 of   1  for UHF beta        at        5.6s
  vrange nnbf                   325
Node 0 wrote      0.2 Mb in      0.0 s     Agg I/O rate:   330.9 Mb/s
 Done moints_semi at        5.8s
 Done maket at        5.8s
 Done multipass loop at        5.8s


          -------------------------------------------
          SCF energy                 -75.627674915112
          Correlation energy          -0.149002907020
          Singlet pairs                0.000000000000
          Triplet pairs                0.000000000000
          Total MP2 energy           -75.776677822132
          -------------------------------------------



          ---------------------------------------------------
                    Spin Component Scaled (SCS) MP2
          Same spin pairs                     -0.034445859834
          Same spin scaling factor             0.333333333333
          Opposite spin pairs                 -0.114557047186
          Opposite spin scaling fact.          1.200000000000
          SCS-MP2 correlation energy          -0.148950409901
          Total SCS-MP2 energy               -75.776625325013
          ---------------------------------------------------

 -----------------------
 Performance information
 -----------------------

 Timer overhead =  2.08D-07 seconds/call

               Nr. of calls         CPU time (s)                 Wall time (s)                GFlops
             ---------------    -------------------     ------------------------------   -------------------
Name         Min   Avg   Max    Min     Avg     Max     Min     Avg     Max   Mx/calls   Min     Max     Sum
mp2: moin     2     2     2   0.24    0.24    0.24     0.25    0.25    0.25    0.13      0.0     0.0     0.0   
mp2: make     2     2     2   1.18E-2 1.18E-2 1.18E-2  1.57E-2 1.57E-2 1.57E-2 7.86E-3   0.0     0.0     0.0   
mp2: tota     1     1     1   0.32    0.32    0.32     0.36    0.36    0.36    0.36      0.0     0.0     0.0   

 The average no. of pstat calls per process was 5.00D+00
 with a timing overhead of 1.04D-06s

 Line search: 
     step= 1.00 grad=-1.7D-05 hess= 9.4D-06 energy=    -75.776678 mode=downhill
 new step= 0.89                   predicted energy=    -75.776678

          --------
          Step   2
          --------


                         Geometry "geometry" -> "geometry"
                         ---------------------------------

 Output coordinates in angstroms (scale by  1.889725989 to convert to a.u.)

  No.       Tag          Charge          X              Y              Z
 ---- ---------------- ---------- -------------- -------------- --------------
    1 O                    8.0000     0.00000000     0.00000000    -0.05062090
    2 H                    1.0000     0.82021698     0.00000000     0.52028520
    3 H                    1.0000    -0.82021698     0.00000000     0.52028520

      Atomic Mass 
      ----------- 

      O                 15.994910
      H                  1.007825


 Effective nuclear repulsion energy (a.u.)       8.7949723148

            Nuclear Dipole moment (a.u.) 
            ----------------------------
        X                 Y               Z
 ---------------- ---------------- ----------------
     0.0000000000     0.0000000000     1.2011158867

      Symmetry information
      --------------------

 Group name             C2v       
 Group number             16
 Group order               4
 No. of unique centers     2

      Symmetry unique atoms

     1    2

                                 NWChem SCF Module
                                 -----------------


                     H2O+ : 6-31g** UMP2 geometry optimization



  ao basis        = "ao basis"
  functions       =    25
  atoms           =     3
  alpha electrons =     5
  beta  electrons =     4
  charge          =   1.00
  wavefunction    = UHF 
  input vectors   = ./h2o_freq.movecs
  output vectors  = ./h2o_freq.movecs
  use symmetry    = T
  symmetry adapt  = T


 Forming initial guess at       5.8s


 Starting SCF solution at       5.9s



       Final UHF  results 
       ------------------ 

         Total SCF energy =    -75.627690426542
      One electron energy =   -117.433368240201
      Two electron energy =     33.010705498906
 Nuclear repulsion energy =      8.794972314753

                       Sz =      0.5000
                 Sz(Sz+1) =      0.7500
                      S^2 =      0.7571

        Time for solution =      0.1s


                   NWChem MP2 Semi-direct Energy/Gradient Module
                   ---------------------------------------------


                     H2O+ : 6-31g** UMP2 geometry optimization


  Basis functions       =     25
  Molecular orbitals    =     25
  Frozen core           =      0
  Frozen virtuals       =      0
  Active alpha occupied =      5
  Active beta occupied  =      4
  Active alpha virtual  =     20
  Active beta virtual   =     21
  Use MO symmetry       = T
  Use skeleton AO sym   = T

  AO/Fock/Back tols     =   1.0D-09  1.0D-09  1.0D-09

 GA uses MA = F    GA memory limited = T

 Available: 
  local mem=  2.62D+07
 global mem=  2.62D+07
 local disk=  2.81D+13
  mp2_memr nvloc                    20
  nvloc new                    20
   1 passes of   5:        1488524                       9108                    115042.

 Semi-direct pass number   1 of   1  for UHF alpha       at        6.0s
  vrange nnbf                   325
Node 0 wrote      0.3 Mb in      0.0 s     Agg I/O rate:     0.0 Mb/s
 Done moints_semi at        6.1s
  mp2_eaf for ta                     -1
  mp2_eaf for tb                     -1
 Done maket at        6.1s
 Done pijab at        6.1s
 Done wijab at        6.1s
 Done lai at        6.1s
 Done nonsep at        6.3s
 Done multipass loop at        6.3s

 GA uses MA = F    GA memory limited = T

 Available: 
  local mem=  2.62D+07
 global mem=  2.62D+07
 local disk=  5.62D+13
  mp2_memr nvloc                    21
  nvloc new                    21
   1 passes of   4:        1487581                       9372                     95144.

 Semi-direct pass number   1 of   1  for UHF beta        at        6.3s
  vrange nnbf                   325
Node 0 wrote      0.2 Mb in      0.0 s     Agg I/O rate:   215.4 Mb/s
 Done moints_semi at        6.4s
  mp2_eaf for ta                     -1
  mp2_eaf for tb                     -1
 Done maket at        6.4s
 Done pijab at        6.4s
 Done wijab at        6.4s
 Done lai at        6.4s
 Done nonsep at        6.6s
 Done multipass loop at        6.6s


          -------------------------------------------
          SCF energy                 -75.627690426542
          Correlation energy          -0.148987502242
          Singlet pairs                0.000000000000
          Triplet pairs                0.000000000000
          Total MP2 energy           -75.776677928784
          -------------------------------------------



          ---------------------------------------------------
                    Spin Component Scaled (SCS) MP2
          Same spin pairs                     -0.034442423589
          Same spin scaling factor             0.333333333333
          Opposite spin pairs                 -0.114545078653
          Opposite spin scaling fact.          1.200000000000
          SCS-MP2 correlation energy          -0.148934902247
          Total SCS-MP2 energy               -75.776625328789
          ---------------------------------------------------

                                NWChem CPHF Module
                                ------------------


    scftype = UHF 
     nalpha =    5
      nbeta =    4
  variables =      184
  tolerance =   1.0D-04
  max. iter =  100


 #quartets = 1.953D+03 #integrals = 1.805D+04 #direct =  0.0% #cached =100.0%


 Integral file          = ./h2o_freq.aoints.0
 Record size in doubles =    65536    No. of integs per rec  =    43688
 Max. records in memory =        2    Max. records in file   = ********
 No. of bits per label  =        8    No. of bits per value  =       64

 SCF residual:    1.6400217778894205E-007

            ----- linear solve (tol: 1.0E-04 prod-acc: 3.0E-12) -----

               iter nbas    rnorm     rnorm-scal   ratio     time
               ---- ---- ----------- ----------- --------- -------
                  1    1  1.2482E-02  3.0442E-01    0.0000     4.8
                  2    2  3.9365E-03  9.6009E-02    0.3154     4.8
                  3    3  1.2945E-03  3.1572E-02    0.3288     4.8
                  4    4  3.2087E-04  7.8259E-03    0.2479     4.8
                  5    5  5.0826E-05  1.2396E-03    0.1584     4.8
                  6    6  1.2023E-05  2.9324E-04    0.2366     4.8
                  7    7  2.6453E-06  6.4517E-05    0.2200     4.8

 CPHF converged to   6.5D-05 in    7 iters


 Parallel integral file used       1 records with       0 large values

                Dipole Moments (a.u.)
                --------------
         Nuclear       SCF       SCF+MP2
       ----------- ----------- -----------
 X       0.000000   -0.000000   -0.000000
 Y       0.000000    0.000000    0.000000
 Z       1.201116    1.052417    1.022710


 MP2 alpha    natural orbital occupation numbers


              1      
    1    1.0000
    2    0.9952
    3    0.9913
    4    0.9881
    5    0.9869
    6    0.0090
    7    0.0081
    8    0.0053
    9    0.0039
   10    0.0023
   11    0.0022
   12    0.0021
   13    0.0021
   14    0.0019
   15    0.0003
   16    0.0003
   17    0.0002
   18    0.0002
   19    0.0001
   20    0.0001
   21    0.0001
   22    0.0001
   23    0.0000
   24    0.0000
   25    0.0000

 MP2 beta     natural orbital occupation numbers


              1      
    1    1.0000
    2    0.9922
    3    0.9878
    4    0.9869
    5    0.0094
    6    0.0081
    7    0.0042
    8    0.0029
    9    0.0022
   10    0.0021
   11    0.0010
   12    0.0010
   13    0.0007
   14    0.0003
   15    0.0003
   16    0.0002
   17    0.0002
   18    0.0002
   19    0.0001
   20    0.0001
   21    0.0001
   22    0.0001
   23    0.0000
   24    0.0000
   25    0.0000

  MP2 natural orbitals output to ./h2o_freq.mp2nos

  Using symmetry


                         mp2 ENERGY GRADIENTS

    atom               coordinates                        gradient
                 x          y          z           x          y          z
   1 O       0.000000   0.000000  -0.095660    0.000000   0.000000   0.000037
   2 H       1.549985   0.000000   0.983196    0.000018   0.000000  -0.000018
   3 H      -1.549985   0.000000   0.983196   -0.000018   0.000000  -0.000018

                 ----------------------------------------
                 |  Time  |  1-e(secs)   |  2-e(secs)   |
                 ----------------------------------------
                 |  CPU   |       0.00   |       0.11   |
                 ----------------------------------------
                 |  WALL  |       0.00   |       0.12   |
                 ----------------------------------------
 -----------------------
 Performance information
 -----------------------

 Timer overhead =  1.87D-07 seconds/call

               Nr. of calls         CPU time (s)                 Wall time (s)                GFlops
             ---------------    -------------------     ------------------------------   -------------------
Name         Min   Avg   Max    Min     Avg     Max     Min     Avg     Max   Mx/calls   Min     Max     Sum
mp2: moin     2     2     2   0.17    0.17    0.17     0.17    0.17    0.17    8.67E-2   0.0     0.0     0.0   
mp2: make     2     2     2   7.73E-3 7.73E-3 7.73E-3  2.41E-2 2.41E-2 2.41E-2 1.20E-2   0.0     0.0     0.0   
[...]

  mp2_memr nvloc                    20
  nvloc new                    20
  vrange nnbf                   325
  mp2_eaf for ta                     -1
  mp2_eaf for tb                     -1
  mp2_memr nvloc                    21
  nvloc new                    21
  vrange nnbf                   325
  mp2_eaf for ta                     -1
  mp2_eaf for tb                     -1
 SCF residual:    1.2688237425741457E-007
 atom:   3 xyz: 3(+) wall time:      25.4      date:  Thu Nov 29 19:11:19 2018

  mp2_memr nvloc                    20
  nvloc new                    20
  vrange nnbf                   325
  mp2_eaf for ta                     -1
  mp2_eaf for tb                     -1
  mp2_memr nvloc                    21
  nvloc new                    21
  vrange nnbf                   325
  mp2_eaf for ta                     -1
  mp2_eaf for tb                     -1
 SCF residual:    1.9107669367025152E-007
 atom:   3 xyz: 3(-) wall time:      26.7      date:  Thu Nov 29 19:11:20 2018

  mp2_memr nvloc                    20
  nvloc new                    20
  vrange nnbf                   325
  mp2_eaf for ta                     -1
  mp2_eaf for tb                     -1
  mp2_memr nvloc                    21
  nvloc new                    21
  vrange nnbf                   325
  mp2_eaf for ta                     -1
  mp2_eaf for tb                     -1
 SCF residual:    1.8936770470596047E-007
  
  finite difference hessian delta =    1.0000000000000000E-003

              1        2        3        4        5        6        7        8
    1    0.5973   0.0000   0.0000  -0.2987   0.0000  -0.2079  -0.2987   0.0000
    2    0.0000  -0.0000   0.0000   0.0000  -0.0000   0.0000   0.0000  -0.0000
    3    0.0000   0.0000   0.3594  -0.1634   0.0000  -0.1797   0.1634   0.0000
    4   -0.2987   0.0000  -0.1634   0.3185   0.0000   0.1857  -0.0199   0.0000
    5    0.0000  -0.0000   0.0000   0.0000   0.0000   0.0000   0.0000  -0.0000
    6   -0.2079   0.0000  -0.1797   0.1857   0.0000   0.1622   0.0223   0.0000
    7   -0.2987   0.0000   0.1634  -0.0199   0.0000   0.0223   0.3185   0.0000
    8    0.0000  -0.0000   0.0000   0.0000  -0.0000   0.0000   0.0000   0.0000
    9    0.2079   0.0000  -0.1797  -0.0223   0.0000   0.0175  -0.1857   0.0000

              9      
    1    0.2079
    3   -0.1797
    4   -0.0223
    6    0.0175
    7   -0.1857
    9    0.1622
  

  finite difference derivative dipole; delta =    1.0000000000000000E-003

  
  
 X vector of derivative dipole (au) [debye/angstrom]
 d_dipole_x/<atom=   1,x> =    -0.1903     [   -0.9139]
 d_dipole_x/<atom=   1,y> =     0.0000     [    0.0000]
 d_dipole_x/<atom=   1,z> =     0.0000     [    0.0000]
 d_dipole_x/<atom=   2,x> =     0.5951     [    2.8586]
 d_dipole_x/<atom=   2,y> =     0.0000     [    0.0000]
 d_dipole_x/<atom=   2,z> =     0.0535     [    0.2569]
 d_dipole_x/<atom=   3,x> =     0.5951     [    2.8586]
 d_dipole_x/<atom=   3,y> =     0.0000     [    0.0000]
 d_dipole_x/<atom=   3,z> =    -0.0535     [   -0.2569]
  
 Y vector of derivative dipole (au) [debye/angstrom]
 d_dipole_y/<atom=   1,x> =     0.0000     [    0.0000]
 d_dipole_y/<atom=   1,y> =    -0.0366     [   -0.1757]
 d_dipole_y/<atom=   1,z> =     0.0000     [    0.0000]
 d_dipole_y/<atom=   2,x> =     0.0000     [    0.0000]
 d_dipole_y/<atom=   2,y> =     0.5183     [    2.4894]
 d_dipole_y/<atom=   2,z> =     0.0000     [    0.0000]
 d_dipole_y/<atom=   3,x> =     0.0000     [    0.0000]
 d_dipole_y/<atom=   3,y> =     0.5183     [    2.4894]
 d_dipole_y/<atom=   3,z> =     0.0000     [    0.0000]
  
 Z vector of derivative dipole (au) [debye/angstrom]
 d_dipole_z/<atom=   1,x> =     0.0000     [    0.0000]
 d_dipole_z/<atom=   1,y> =     0.0000     [    0.0000]
 d_dipole_z/<atom=   1,z> =     0.1074     [    0.5160]
 d_dipole_z/<atom=   2,x> =     0.0532     [    0.2557]
 d_dipole_z/<atom=   2,y> =     0.0000     [    0.0000]
 d_dipole_z/<atom=   2,z> =     0.4463     [    2.1436]
 d_dipole_z/<atom=   3,x> =    -0.0532     [   -0.2557]
 d_dipole_z/<atom=   3,y> =     0.0000     [    0.0000]
 d_dipole_z/<atom=   3,z> =     0.4463     [    2.1436]
  
  
  stpr_wrt_fd_from_sq: overwrite of existing file:./h2o_freq.hess
 stpr_wrt_fd_dipole: overwrite of existing file./h2o_freq.fd_ddipole
  triangle hessian written to ./h2o_freq.hess
  derivative dipole written to ./h2o_freq.fd_ddipole

 Deleting state for mp2 with suffix hess
        ./h2o_freq.movecs



  Vibrational analysis via the FX method 

  See chapter 2 in "Molecular Vibrations" by Wilson, Decius and Cross

  Vib: Default input used 

  Nuclear Hessian passed symmetry test 



 ---------------------------- Atom information ----------------------------
     atom    #        X              Y              Z            mass
 --------------------------------------------------------------------------
    O        1  0.0000000D+00  0.0000000D+00 -9.5798829D-02  1.5994910D+01
    H        2  1.5498450D+00  0.0000000D+00  9.8326606D-01  1.0078250D+00
    H        3 -1.5498450D+00  0.0000000D+00  9.8326606D-01  1.0078250D+00
 --------------------------------------------------------------------------




          ----------------------------------------------------
          MASS-WEIGHTED NUCLEAR HESSIAN (Hartree/Bohr/Bohr/Kamu)
          ----------------------------------------------------


               1            2            3            4            5            6            7            8            9
   ----- ----- ----- ----- -----
    1    3.73442D+01
    2    0.00000D+00 -5.23776D-04
    3    0.00000D+00  0.00000D+00  2.24701D+01
    4   -7.43846D+01  0.00000D+00 -4.07051D+01  3.16031D+02
    5    0.00000D+00 -4.27020D-04  0.00000D+00  0.00000D+00  1.82872D-03
    6   -5.17890D+01  0.00000D+00 -4.47590D+01  1.84242D+02  0.00000D+00  1.60983D+02
    7   -7.43846D+01  0.00000D+00  4.07051D+01 -1.96971D+01  0.00000D+00  2.20789D+01  3.16031D+02
    8    0.00000D+00 -4.27020D-04  0.00000D+00  0.00000D+00 -1.27555D-04  0.00000D+00  0.00000D+00  1.82872D-03
    9    5.17890D+01  0.00000D+00 -4.47590D+01 -2.20789D+01  0.00000D+00  1.73285D+01 -1.84242D+02  0.00000D+00  1.60983D+02



          -------------------------------------------------
          NORMAL MODE EIGENVECTORS IN CARTESIAN COORDINATES
          -------------------------------------------------
                 (Frequencies expressed in cm-1)

                    1           2           3           4           5           6
 
 Frequency         -4.23       -2.99        2.95        7.00        7.19       10.33
 
           1     0.00000     0.00000     0.21309     0.00000     0.00000    -0.11054
           2     0.24235     0.00000     0.00000    -0.06154     0.00000     0.00000
           3     0.00000     0.23563     0.00000     0.00000     0.00000     0.00000
           4     0.00000    -0.00000     0.32885     0.00000     0.00000     0.28280
           5     0.17335     0.00000     0.00000     0.68269     0.70436     0.00000
           6     0.00000     0.23563    -0.16625     0.00000     0.00000    -0.56495
           7     0.00000     0.00000     0.32885     0.00000     0.00000     0.28280
           8     0.17335     0.00000     0.00000     0.68269    -0.70436     0.00000
           9     0.00000     0.23563     0.16625     0.00000     0.00000     0.56495

                    7           8           9
 
 Frequency       1484.72     3460.15     3551.51
 
           1     0.00000    -0.00000    -0.06994
           2     0.00000     0.00000     0.00000
           3     0.06911    -0.04713    -0.00000
           4     0.39687     0.58190     0.55498
           5     0.00000     0.00000     0.00000
           6    -0.54838     0.37400     0.38640
           7    -0.39687    -0.58190     0.55498
           8     0.00000     0.00000     0.00000
           9    -0.54838     0.37400    -0.38640



 ----------------------------------------------------------------------------
 Normal Eigenvalue ||         Derivative Dipole Moments (debye/angs)
  Mode   [cm**-1]  ||      [d/dqX]             [d/dqY]           [d/dqZ]
 ------ ---------- || ------------------ ------------------ -----------------
    1       -4.230 ||       0.000               0.821             0.000
    2       -2.993 ||      -0.000               0.000             1.132
    3        2.947 ||       1.600               0.000             0.000
    4        7.000 ||       0.000               3.410             0.000
    5        7.190 ||       0.000               0.000             0.000
    6       10.330 ||       1.428               0.000             0.000
    7     1484.718 ||       0.000               0.000             2.112
    8     3460.153 ||      -0.000               0.000             1.877
    9     3551.506 ||       3.435               0.000             0.000
 ----------------------------------------------------------------------------



  
  
 ----------------------------------------------------------------------------
 Normal Eigenvalue ||                 Infra Red Intensities
  Mode   [cm**-1]  || [atomic units] [(debye/angs)**2] [(KM/mol)] [arbitrary]
 ------ ---------- || -------------- ----------------- ---------- -----------
    1       -4.230 ||    0.029182           0.673        28.448       1.596
    2       -2.993 ||    0.055520           1.281        54.124       3.037
    3        2.947 ||    0.110952           2.560       108.161       6.068
    4        7.000 ||    0.503976          11.627       491.301      27.564
    5        7.190 ||    0.000000           0.000         0.000       0.000
    6       10.330 ||    0.088336           2.038        86.114       4.831
    7     1484.718 ||    0.193396           4.462       188.532      10.577
    8     3460.153 ||    0.152661           3.522       148.822       8.349
    9     3551.506 ||    0.511543          11.802       498.677      27.978
 ----------------------------------------------------------------------------





        Vibrational analysis via the FX method 
  --- with translations and rotations projected out ---
  --- via the Eckart algorithm                      ---
 Projected Nuclear Hessian trans-rot subspace norm:5.3445D-33
                         (should be close to zero!) 

          --------------------------------------------------------
          MASS-WEIGHTED PROJECTED HESSIAN (Hartree/Bohr/Bohr/Kamu)
          --------------------------------------------------------


               1            2            3            4            5            6            7            8            9
   ----- ----- ----- ----- -----
    1    3.73437D+01
    2    0.00000D+00  0.00000D+00
    3   -1.85938D-16  0.00000D+00  2.24703D+01
    4   -7.43850D+01  0.00000D+00 -4.07053D+01  3.16032D+02
    5    0.00000D+00  5.27420D-20  0.00000D+00  0.00000D+00  0.00000D+00
    6   -5.17898D+01  0.00000D+00 -4.47587D+01  1.84241D+02  0.00000D+00  1.60979D+02
    7   -7.43850D+01  0.00000D+00  4.07053D+01 -1.96962D+01  0.00000D+00  2.20794D+01  3.16032D+02
    8    0.00000D+00  5.27420D-20  0.00000D+00  0.00000D+00  2.62643D-20  0.00000D+00  0.00000D+00  0.00000D+00
    9    5.17898D+01  0.00000D+00 -4.47587D+01 -2.20794D+01  0.00000D+00  1.73305D+01 -1.84241D+02  0.00000D+00  1.60979D+02

 center of mass
 --------------
 x =   0.00000000 y =   0.00000000 z =   0.02496461

 moments of inertia (a.u.)
 ------------------
           2.084322076176           0.000000000000           0.000000000000
           0.000000000000           6.925952976632           0.000000000000
           0.000000000000           0.000000000000           4.841630900455

 Rotational Constants
 --------------------
 A=  28.882377 cm-1  ( 41.554369 K)
 B=  12.433863 cm-1  ( 17.889156 K)
 C=   8.691970 cm-1  ( 12.505527 K)


 Temperature                      =   298.15K
 frequency scaling parameter      =   1.0000

 Zero-Point correction to Energy  =   12.140 kcal/mol  (  0.019347 au)
 Thermal correction to Energy     =   13.920 kcal/mol  (  0.022183 au)
 Thermal correction to Enthalpy   =   14.513 kcal/mol  (  0.023127 au)

 Total Entropy                    =   45.246 cal/mol-K
   - Translational                =   34.593 cal/mol-K (mol. weight =  18.0106)
   - Rotational                   =   10.641 cal/mol-K (symmetry #  =        2)
   - Vibrational                  =    0.013 cal/mol-K

 Cv (constant volume heat capacity) =    6.038 cal/mol-K
   - Translational                  =    2.979 cal/mol-K
   - Rotational                     =    2.979 cal/mol-K
   - Vibrational                    =    0.079 cal/mol-K



          -------------------------------------------------
          NORMAL MODE EIGENVECTORS IN CARTESIAN COORDINATES
          -------------------------------------------------
             (Projected Frequencies expressed in cm-1)

                    1           2           3           4           5           6
 
 P.Frequency       -0.00        0.00        0.00        0.00        0.00        0.00
 
           1    -0.23565     0.00000     0.00000     0.00000     0.01637    -0.04279
           2     0.00000     0.25004     0.00000     0.00000     0.00000     0.00000
           3     0.00000     0.00000     0.00000     0.00000     0.22007     0.08420
           4    -0.23552     0.00000     0.00000     0.00000    -0.13015     0.34016
           5     0.00000     0.00000     0.99611     0.00000     0.00000     0.00000
           6    -0.00017     0.00000     0.00000     0.00000     0.43052    -0.46582
           7    -0.23552     0.00000     0.00000     0.00000    -0.13015     0.34016
           8     0.00000     0.00000     0.00000     0.99611     0.00000     0.00000
           9     0.00018     0.00000     0.00000     0.00000     0.00962     0.63423

                    7           8           9
 
 P.Frequency     1484.72     3460.15     3551.51
 
           1    -0.00000    -0.00000     0.06994
           2     0.00000     0.00000     0.00000
           3     0.06911    -0.04713    -0.00000
           4     0.39687     0.58191    -0.55498
           5     0.00000     0.00000     0.00000
           6    -0.54838     0.37400    -0.38640
           7    -0.39687    -0.58191    -0.55498
           8     0.00000     0.00000     0.00000
           9    -0.54838     0.37400     0.38640



 ----------------------------------------------------------------------------
 Normal Eigenvalue ||    Projected Derivative Dipole Moments (debye/angs)
  Mode   [cm**-1]  ||      [d/dqX]             [d/dqY]           [d/dqZ]
 ------ ---------- || ------------------ ------------------ -----------------
    1       -0.000 ||      -1.131               0.000             0.000
    2        0.000 ||       0.000              -0.044             0.000
    3        0.000 ||       0.000               2.480             0.000
    4        0.000 ||       0.000               2.480             0.000
    5        0.000 ||      -0.651               0.000             1.057
    6        0.000 ||       1.701               0.000             0.404
    7     1484.716 ||       0.000               0.000             2.112
    8     3460.149 ||      -0.000               0.000             1.877
    9     3551.507 ||      -3.435               0.000             0.000
 ----------------------------------------------------------------------------



  
  
 ----------------------------------------------------------------------------
 Normal Eigenvalue ||           Projected Infra Red Intensities
  Mode   [cm**-1]  || [atomic units] [(debye/angs)**2] [(KM/mol)] [arbitrary]
 ------ ---------- || -------------- ----------------- ---------- -----------
    1       -0.000 ||    0.055473           1.280        54.077       3.034
    2        0.000 ||    0.000084           0.002         0.082       0.005
    3        0.000 ||    0.266538           6.149       259.834      14.578
    4        0.000 ||    0.266538           6.149       259.834      14.578
    5        0.000 ||    0.066795           1.541        65.115       3.653
    6        0.000 ||    0.132537           3.058       129.203       7.249
    7     1484.716 ||    0.193397           4.462       188.533      10.577
    8     3460.149 ||    0.152660           3.522       148.821       8.349
    9     3551.507 ||    0.511546          11.802       498.680      27.978
 ----------------------------------------------------------------------------



 vib:animation  F

 Task  times  cpu:       15.6s     wall:       19.3s
 Summary of allocated global arrays
-----------------------------------
  No active global arrays



                         GA Statistics for process    0
                         ------------------------------

       create   destroy   get      put      acc     scatter   gather  read&inc
calls: 1.74e+04 1.74e+04 4.35e+05 9.59e+04 1.34e+05 2974        0     1.35e+04 
number of processes/call 1.00e+00 1.00e+00 1.00e+00 0.00e+00 0.00e+00
bytes total:             8.53e+07 7.67e+07 2.58e+07 8.00e+02 0.00e+00 1.08e+05
bytes remote:            0.00e+00 0.00e+00 0.00e+00 0.00e+00 0.00e+00 0.00e+00
Max memory consumed for GA by this process: 1027064 bytes
MA_summarize_allocated_blocks: starting scan ...
MA_summarize_allocated_blocks: scan completed: 0 heap blocks, 0 stack blocks
MA usage statistics:

	allocation statistics:
					      heap	     stack
					      ----	     -----
	current number of blocks	         0	         0
	maximum number of blocks	        26	        51
	current total bytes		         0	         0
	maximum total bytes		   1586640	  22510200
	maximum total K-bytes		      1587	     22511
	maximum total M-bytes		         2	        23


                                NWChem Input Module
                                -------------------





                                     CITATION
                                     --------
                Please cite the following reference when publishing
                           results obtained with NWChem:

                 M. Valiev, E.J. Bylaska, N. Govind, K. Kowalski,
              T.P. Straatsma, H.J.J. van Dam, D. Wang, J. Nieplocha,
                        E. Apra, T.L. Windus, W.A. de Jong
                 "NWChem: a comprehensive and scalable open-source
                  solution for large scale molecular simulations"
                      Comput. Phys. Commun. 181, 1477 (2010)
                           doi:10.1016/j.cpc.2010.04.018

                                      AUTHORS
                                      -------
          E. Apra, E. J. Bylaska, W. A. de Jong, N. Govind, K. Kowalski,
       T. P. Straatsma, M. Valiev, H. J. J. van Dam, D. Wang, T. L. Windus,
        J. Hammond, J. Autschbach, K. Bhaskaran-Nair, J. Brabec, K. Lopata,
    S. A. Fischer, S. Krishnamoorthy, M. Jacquelin, W. Ma, M. Klemm, O. Villa,
      Y. Chen, V. Anisimov, F. Aquino, S. Hirata, M. T. Hackler, V. Konjkov,
            D. Mejia-Rodriguez, T. Risthaus, M. Malagoli, A. Marenich,
   A. Otero-de-la-Roza, J. Mullin, P. Nichols, R. Peverati, J. Pittner, Y. Zhao,
        P.-D. Fan, A. Fonari, M. J. Williamson, R. J. Harrison, J. R. Rehr,
      M. Dupuis, D. Silverstein, D. M. A. Smith, J. Nieplocha, V. Tipparaju,
    M. Krishnan, B. E. Van Kuiken, A. Vazquez-Mayagoitia, L. Jensen, M. Swart,
      Q. Wu, T. Van Voorhis, A. A. Auer, M. Nooijen, L. D. Crosby, E. Brown,
      G. Cisneros, G. I. Fann, H. Fruchtl, J. Garza, K. Hirao, R. A. Kendall,
      J. A. Nichols, K. Tsemekhman, K. Wolinski, J. Anchell, D. E. Bernholdt,
      P. Borowski, T. Clark, D. Clerc, H. Dachsel, M. J. O. Deegan, K. Dyall,
    D. Elwood, E. Glendening, M. Gutowski, A. C. Hess, J. Jaffe, B. G. Johnson,
     J. Ju, R. Kobayashi, R. Kutteh, Z. Lin, R. Littlefield, X. Long, B. Meng,
      T. Nakajima, S. Niu, L. Pollack, M. Rosing, K. Glaesemann, G. Sandrone,
      M. Stave, H. Taylor, G. Thomas, J. H. van Lenthe, A. T. Wong, Z. Zhang.

 Total times  cpu:       22.1s     wall:       28.3s
